 Gaussian 09, Revision D.01,
 Gaussian 09:  ES64L-G09RevD.01 24-Apr-2013

 -------------------------
 # opt freq b3lyp/6-31g(d)
 -------------------------

 -------------------
 Title Card Required
 -------------------
 Symbolic Z-matrix:
 Charge =  0 Multiplicity = 1

 SCF Done:  E(RB3LYP) =  -15964.7188126     A.U. after   18 cycles
 SCF Done:  E(RB3LYP) =  -15964.7891020     A.U. after   19 cycles
 SCF Done:  E(RB3LYP) =  -15964.8922891     A.U. after   24 cycles
 SCF Done:  E(RB3LYP) =  -15964.9733083     A.U. after   16 cycles
 SCF Done:  E(RB3LYP) =  -15965.0104021     A.U. after   15 cycles
 SCF Done:  E(RB3LYP) =  -15965.0323913     A.U. after   15 cycles
 SCF Done:  E(RB3LYP) =  -15965.0651228     A.U. after   15 cycles
 SCF Done:  E(RB3LYP) =  -15965.0915005     A.U. after   15 cycles
 SCF Done:  E(RB3LYP) =  -15965.1038978     A.U. after   15 cycles
 SCF Done:  E(RB3LYP) =  -15965.1104295     A.U. after   14 cycles
 SCF Done:  E(RB3LYP) =  -15965.1220830     A.U. after   10 cycles
 SCF Done:  E(RB3LYP) =  -15965.1220855     A.U. after    8 cycles
 SCF Done:  E(RB3LYP) =  -15965.1220862     A.U. after    7 cycles
 SCF Done:  E(RB3LYP) =  -15965.1220874     A.U. after    8 cycles
 SCF Done:  E(RB3LYP) =  -15965.1220888     A.U. after    8 cycles
 SCF Done:  E(RB3LYP) =  -15965.1220914     A.U. after    9 cycles
 SCF Done:  E(RB3LYP) =  -15965.1220950     A.U. after   10 cycles
 SCF Done:  E(RB3LYP) =  -15965.1220959     A.U. after    8 cycles
 SCF Done:  E(RB3LYP) =  -15965.1220958     A.U. after    6 cycles
 Optimization completed.
    -- Stationary point found.
 Normal termination of Gaussian 09 at Tue Jan 17 18:33:42 2017.

 --------------------------------------------------------------------
 #N Geom=AllCheck Guess=TCheck SCRF=Check GenChk RB3LYP/6-31G(d) Freq
 --------------------------------------------------------------------

 Structure from the checkpoint file:  "10.chk"
 -------------------
 Title Card Required
 -------------------
 Charge =  0 Multiplicity = 1

                         Standard orientation:
 ---------------------------------------------------------------------
 Center     Atomic      Atomic             Coordinates (Angstroms)
 Number     Number       Type             X           Y           Z
 ---------------------------------------------------------------------
      1          6           0        2.520793   -1.306601   -0.060525
      2          6           0        1.282387   -0.763195   -0.401887
      3          6           0        1.178256    0.577698   -0.764860
      4          6           0        2.324410    1.380632   -0.782864
      5          6           0        3.560292    0.836289   -0.453435
      6          6           0        3.666998   -0.507515   -0.090738
      7          1           0        0.398892   -1.390393   -0.387552
      8          1           0        4.444416    1.461653   -0.465994
      9          8           0       -0.011774    1.141331   -1.170473
     10          6           0       -1.185505    0.738637   -0.572532
     11          6           0       -2.088731   -0.014123   -1.318242
     12          6           0       -1.525575    1.148852    0.723083
     13          6           0       -3.324408   -0.374213   -0.779791
     14          1           0       -1.821172   -0.309220   -2.326177
     15          6           0       -2.753740    0.784562    1.265374
     16          6           0       -3.655699    0.022548    0.520024
     17          1           0       -3.017841    1.102033    2.266609
     18         35           0        2.185480    3.219495   -1.217749
     19         35           0       -0.331293    2.227632    1.724861
     20         35           0        5.381576   -1.187895    0.357322
     21         35           0       -5.315846   -0.435693    1.315609
     22         35           0       -4.508622   -1.401545   -1.847080
     23         35           0        2.591362   -3.140170    0.426329
 ---------------------------------------------------------------------

 SCF Done:  E(RB3LYP) =  -15965.1220958     A.U. after    1 cycles

 The electronic state is 1-A.
 Alpha  occ. eigenvalues -- -482.93540-482.93341-482.93278-482.92838-482.92679
 Alpha  occ. eigenvalues -- -482.92642 -61.89657 -61.89510 -61.89400 -61.88995
 Alpha  occ. eigenvalues --  -61.88813 -61.88764 -56.41770 -56.41632 -56.41544
 Alpha  occ. eigenvalues --  -56.41331 -56.41318 -56.41188 -56.41178 -56.41122
 Alpha  occ. eigenvalues --  -56.41113 -56.41110 -56.40952 -56.40897 -56.40682
 Alpha  occ. eigenvalues --  -56.40674 -56.40517 -56.40513 -56.40453 -56.40450
 Alpha  occ. eigenvalues --  -19.22252 -10.29330 -10.29125 -10.28124 -10.28011
 Alpha  occ. eigenvalues --  -10.27722 -10.27537 -10.27153 -10.26806 -10.23942
 Alpha  occ. eigenvalues --  -10.23628 -10.23245 -10.23017  -8.60710  -8.60597
 Alpha  occ. eigenvalues --   -8.60529  -8.60091  -8.59929  -8.59848  -6.56139
 Alpha  occ. eigenvalues --   -6.56032  -6.55969  -6.55522  -6.55365  -6.55285
 Alpha  occ. eigenvalues --   -6.54797  -6.54746  -6.54698  -6.54636  -6.54631
 Alpha  occ. eigenvalues --   -6.54575  -6.54194  -6.54136  -6.54028  -6.53979
 Alpha  occ. eigenvalues --   -6.53948  -6.53885  -2.67699  -2.67595  -2.67531
 Alpha  occ. eigenvalues --   -2.67321  -2.67283  -2.67221  -2.67175  -2.67157
 Alpha  occ. eigenvalues --   -2.67115  -2.67086  -2.66927  -2.66846  -2.66713
 Alpha  occ. eigenvalues --   -2.66669  -2.66552  -2.66514  -2.66472  -2.66425
 Alpha  occ. eigenvalues --   -2.66212  -2.66212  -2.66109  -2.66109  -2.66044
 Alpha  occ. eigenvalues --   -2.66043  -2.65609  -2.65608  -2.65446  -2.65446
 Alpha  occ. eigenvalues --   -2.65356  -2.65356  -1.11598  -0.92238  -0.91111
 Alpha  occ. eigenvalues --   -0.85655  -0.84791  -0.82838  -0.82008  -0.80037
 Alpha  occ. eigenvalues --   -0.79247  -0.76654  -0.75039  -0.73310  -0.71437
 Alpha  occ. eigenvalues --   -0.66222  -0.65243  -0.62852  -0.59561  -0.56334
 Alpha  occ. eigenvalues --   -0.53468  -0.52779  -0.50613  -0.49064  -0.47948
 Alpha  occ. eigenvalues --   -0.47222  -0.45906  -0.43942  -0.43568  -0.43130
 Alpha  occ. eigenvalues --   -0.41826  -0.40919  -0.40026  -0.39877  -0.38398
 Alpha  occ. eigenvalues --   -0.37260  -0.36033  -0.34795  -0.33325  -0.32394
 Alpha  occ. eigenvalues --   -0.32114  -0.31630  -0.30884  -0.30572  -0.29739
 Alpha  occ. eigenvalues --   -0.29482  -0.29044  -0.28543  -0.27224  -0.26393
 Alpha  occ. eigenvalues --   -0.25273  -0.24284
 Alpha virt. eigenvalues --   -0.05096  -0.04800  -0.04380  -0.03889  -0.03514
 Alpha virt. eigenvalues --   -0.02927  -0.00585   0.00092   0.02366   0.02957
 Alpha virt. eigenvalues --    0.10485   0.11145   0.12023   0.13094   0.13352

 Mulliken charges:
               1
     1  C    0.052618
     2  C   -0.187378
     3  C    0.345586
     4  C    0.054142
     5  C   -0.187273
     6  C    0.064832
     7  H    0.177578
     8  H    0.184890
     9  O   -0.559610
    10  C    0.317975
    11  C   -0.188699
    12  C    0.078034
    13  C    0.050349
    14  H    0.183771
    15  C   -0.192579
    16  C    0.069101
    17  H    0.188591
    18  Br  -0.078544
    19  Br  -0.070580
    20  Br  -0.080925
    21  Br  -0.072292
    22  Br  -0.071199
    23  Br  -0.078390
 Sum of Mulliken charges =   0.00000

 Dipole moment (field-independent basis, Debye):
    X=             -0.5759    Y=              0.1047    Z=              0.1164  Tot=              0.5968
 Quadrupole moment (field-independent basis, Debye-Ang):
   XX=           -181.6836   YY=           -181.3797   ZZ=           -178.8149
   XY=              2.7008   XZ=             -0.8282   YZ=              2.5266

  Exact polarizability: 316.161  23.738 231.470  10.162   2.107 167.901
 Approx polarizability: 446.407  48.452 385.153  19.180   2.798 293.205

                      1                      2                      3
                      A                      A                      A
 Frequencies --     13.5252                17.5838                21.8216
 Red. masses --     45.5033                32.1739                38.2090
 Frc consts  --      0.0049                 0.0059                 0.0107
 IR Inten    --      0.0065                 0.0733                 0.0057

                      4                      5                      6
                      A                      A                      A
 Frequencies --     44.6856                50.4386                94.5244
 Red. masses --     57.7289                48.0090                53.0856
 Frc consts  --      0.0679                 0.0720                 0.2795
 IR Inten    --      0.0215                 0.0204                 0.0237

                      7                      8                      9
                      A                      A                      A
 Frequencies --    121.6853               127.4901               129.2940
 Red. masses --     12.0997                16.4197                36.7051
 Frc consts  --      0.1056                 0.1572                 0.3615
 IR Inten    --      0.0336                 0.0214                 0.0924

                     10                     11                     12
                      A                      A                      A
 Frequencies --    131.8522               142.7567               164.7924
 Red. masses --     22.5771                30.7313                19.0254
 Frc consts  --      0.2313                 0.3690                 0.3044
 IR Inten    --      0.1555                 0.0065                 0.0138

                     13                     14                     15
                      A                      A                      A
 Frequencies --    201.7114               208.2280               216.4589
 Red. masses --      6.2401                 6.7148                55.2676
 Frc consts  --      0.1496                 0.1715                 1.5257
 IR Inten    --      0.5870                 0.0304                 0.0477

                     16                     17                     18
                      A                      A                      A
 Frequencies --    219.0254               259.3409               311.2575
 Red. masses --     23.8721                11.9555                13.2061
 Frc consts  --      0.6747                 0.4738                 0.7538
 IR Inten    --      0.0555                 1.1154                 0.8637

                     19                     20                     21
                      A                      A                      A
 Frequencies --    315.5878               363.4826               397.9036
 Red. masses --     14.6961                11.8582                 9.9833
 Frc consts  --      0.8624                 0.9231                 0.9313
 IR Inten    --      2.3010                 0.5476                 3.4033

                     22                     23                     24
                      A                      A                      A
 Frequencies --    434.2674               451.8770               466.5137
 Red. masses --      7.1079                 8.8169                 3.0353
 Frc consts  --      0.7898                 1.0607                 0.3892
 IR Inten    --      4.5269                 5.3266                 4.0084

                     25                     26                     27
                      A                      A                      A
 Frequencies --    479.4668               526.7266               542.4174
 Red. masses --      3.4787                 6.5509                 6.7104
 Frc consts  --      0.4712                 1.0708                 1.1632
 IR Inten    --      9.7637                 1.7374                20.0267

                     28                     29                     30
                      A                      A                      A
 Frequencies --    614.3201               648.4015               658.9589
 Red. masses --      9.5716                11.3959                 8.4165
 Frc consts  --      2.1282                 2.8228                 2.1533
 IR Inten    --     18.4902                 4.3855                20.9912

                     31                     32                     33
                      A                      A                      A
 Frequencies --    685.0787               708.8330               731.0843
 Red. masses --      7.5825                 5.5013                 9.4938
 Frc consts  --      2.0967                 1.6286                 2.9897
 IR Inten    --      1.0257                 4.6137                17.4204

                     34                     35                     36
                      A                      A                      A
 Frequencies --    741.6774               769.0705               869.8755
 Red. masses --      2.8320                 3.2917                 7.7498
 Frc consts  --      0.9179                 1.1471                 3.4551
 IR Inten    --      1.2273                 3.9558                10.8093

                     37                     38                     39
                      A                      A                      A
 Frequencies --    920.0712               934.3477               941.3414
 Red. masses --      1.6320                 2.4723                 2.5829
 Frc consts  --      0.8140                 1.2716                 1.3485
 IR Inten    --     16.4571                 6.6106                47.9979

                     40                     41                     42
                      A                      A                      A
 Frequencies --    945.8129               946.0079              1065.0504
 Red. masses --      1.5997                 1.5933                 6.7846
 Frc consts  --      0.8432                 0.8401                 4.5343
 IR Inten    --      3.1665                 5.0393               120.6954

                     43                     44                     45
                      A                      A                      A
 Frequencies --   1066.9960              1128.6517              1136.1455
 Red. masses --      6.3563                 2.0174                 2.0460
 Frc consts  --      4.2637                 1.5141                 1.5561
 IR Inten    --     76.7405                50.4845                35.0988

                     46                     47                     48
                      A                      A                      A
 Frequencies --   1229.2679              1266.9664              1276.7939
 Red. masses --      4.0510                 1.5823                 1.3611
 Frc consts  --      3.6066                 1.4965                 1.3074
 IR Inten    --      5.5193                56.1599                22.8850

                     49                     50                     51
                      A                      A                      A
 Frequencies --   1289.8570              1311.4675              1321.3392
 Red. masses --      2.3874                10.2335                10.5920
 Frc consts  --      2.3403                10.3702                10.8958
 IR Inten    --    169.3008                 8.2843                 4.1600

                     52                     53                     54
                      A                      A                      A
 Frequencies --   1367.4215              1370.4900              1489.3527
 Red. masses --      8.8209                 9.3013                 2.8720
 Frc consts  --      9.7178                10.2930                 3.7534
 IR Inten    --     56.0977               158.2117               406.0107

                     55                     56                     57
                      A                      A                      A
 Frequencies --   1495.4846              1584.9390              1596.1308
 Red. masses --      2.8406                10.4461                10.0443
 Frc consts  --      3.7430                15.4606                15.0766
 IR Inten    --    152.6226                 2.6862                12.3951

                     58                     59                     60
                      A                      A                      A
 Frequencies --   1608.8328              1625.8084              3235.3519
 Red. masses --      6.8240                 7.2173                 1.0908
 Frc consts  --     10.4066                11.2400                 6.7272
 IR Inten    --     27.3807                 3.9736                 0.4275

                     61                     62                     63
                      A                      A                      A
 Frequencies --   3237.2032              3243.7521              3245.7261
 Red. masses --      1.0919                 1.0921                 1.0917
 Frc consts  --      6.7420                 6.7701                 6.7759
 IR Inten    --      1.6678                 1.0731                 0.8599

 - Thermochemistry -
 -------------------
 Temperature   298.150 Kelvin.  Pressure   1.00000 Atm.
 Atom     1 has atomic number  6 and mass  12.00000

 Molecular mass:   637.53623 amu.
 Principal axes and moments of inertia in atomic units:
                           1         2         3
     Eigenvalues --  ******************************
           X            1.00000  -0.00008  -0.00208
           Y            0.00008   1.00000   0.00094
           Z            0.00208  -0.00094   1.00000
 This molecule is an asymmetric top.
 Rotational symmetry number  1.
 Warning -- assumption of classical behavior for rotation
           may cause significant error
 Rotational temperatures (Kelvin)      0.00738     0.00271     0.00232
 Rotational constants (GHZ):           0.15374     0.05656     0.04844
 Zero-point vibrational energy     327553.2 (Joules/Mol)
                                   78.28710 (Kcal/Mol)
 Warning -- explicit consideration of  28 degrees of freedom as
           vibrations may cause significant error
 Vibrational temperatures:     19.46    25.30    31.40    64.29    72.57
          (Kelvin)            136.00   175.08   183.43   186.02   189.71
                              205.39   237.10   290.22   299.59   311.44
                              315.13   373.13   447.83   454.06   522.97
                              572.49   624.81   650.15   671.21   689.84
                              757.84   780.42   883.87   932.90   948.09
                              985.67  1019.85  1051.87  1067.11  1106.52
                             1251.56  1323.78  1344.32  1354.38  1360.81
                             1361.09  1532.37  1535.17  1623.88  1634.66
                             1768.64  1822.88  1837.02  1855.81  1886.91
                             1901.11  1967.41  1971.83  2142.84  2151.67
                             2280.37  2296.47  2314.75  2339.17  4654.94
                             4657.61  4667.03  4669.87

 Zero-point correction=                           0.124758 (Hartree/Particle)
 Thermal correction to Energy=                    0.143717
 Thermal correction to Enthalpy=                  0.144661
 Thermal correction to Gibbs Free Energy=         0.070010
 Sum of electronic and zero-point Energies=         -15964.997337
 Sum of electronic and thermal Energies=            -15964.978379
 Sum of electronic and thermal Enthalpies=          -15964.977435
 Sum of electronic and thermal Free Energies=       -15965.052086

                     E (Thermal)             CV                S
                      KCal/Mol        Cal/Mol-Kelvin    Cal/Mol-Kelvin
 Total                   90.184             64.611            157.116
 Electronic               0.000              0.000              0.000
 Translational            0.889              2.981             45.240
 Rotational               0.889              2.981             37.876
 Vibrational             88.406             58.649             74.000
 Vibration     1          0.593              1.987              7.411
 Vibration     2          0.593              1.986              6.890
 Vibration     3          0.593              1.985              6.461
 Vibration     4          0.595              1.980              5.040
 Vibration     5          0.595              1.977              4.800
 Vibration     6          0.603              1.953              3.564
 Vibration     7          0.609              1.931              3.073
 Vibration     8          0.611              1.926              2.984
 Vibration     9          0.612              1.924              2.957
 Vibration    10          0.612              1.921              2.919
 Vibration    11          0.616              1.910              2.767
 Vibration    12          0.623              1.886              2.494
 Vibration    13          0.639              1.837              2.117
 Vibration    14          0.642              1.828              2.059
 Vibration    15          0.645              1.816              1.989
 Vibration    16          0.647              1.812              1.967
 Vibration    17          0.668              1.747              1.666
 Vibration    18          0.700              1.652              1.356
 Vibration    19          0.703              1.644              1.333
 Vibration    20          0.737              1.547              1.107
 Vibration    21          0.764              1.475              0.970
 Vibration    22          0.795              1.396              0.845
 Vibration    23          0.811              1.357              0.790
 Vibration    24          0.824              1.324              0.747
 Vibration    25          0.836              1.296              0.712
 Vibration    26          0.882              1.191              0.595
 Vibration    27          0.898              1.156              0.560
 Vibration    28          0.974              1.002              0.426

 Optimization completed.
    -- Stationary point found.
 Normal termination of Gaussian 09 at Tue Jan 17 18:43:14 2017.
